
Running Job 1 of 2 input
qchem input_16369.0 /aimm/scratch/qchem16369/ 0
/home/epif/aimm/qcprog.exe_s input_16369.0 /aimm/scratch/qchem16369/
8388608
                  Welcome to Q-Chem
     A Quantum Leap Into The Future Of Chemistry


 Q-Chem 5.2, Q-Chem, Inc., Pleasanton, CA (2019)

 Yihan Shao,  Zhengting Gan,  E. Epifanovsky,  A. T. B. Gilbert,  M. Wormit,  
 J. Kussmann,  A. W. Lange,  A. Behn,  Jia Deng,  Xintian Feng,  D. Ghosh,  
 M. Goldey,  P. R. Horn,  L. D. Jacobson,  I. Kaliman,  T. Kus,  A. Landau,  
 Jie Liu,  E. I. Proynov,  R. M. Richard,  R. P. Steele,  E. J. Sundstrom,  
 H. L. Woodcock III,  P. M. Zimmerman,  D. Zuev,  B. Albrecht,  E. Alguire,  
 S. A. Baeppler,  D. Barton,  Z. Benda,  Y. A. Bernard,  E. J. Berquist,  
 K. B. Bravaya,  H. Burton,  D. Casanova,  Chun-Min Chang,  Yunqing Chen,  
 A. Chien,  K. D. Closser,  M. P. Coons,  S. Coriani,  S. Dasgupta,  
 A. L. Dempwolff,  M. Diedenhofen,  Hainam Do,  R. G. Edgar,  Po-Tung Fang,  
 S. Faraji,  S. Fatehi,  Qingguo Feng,  K. D. Fenk,  J. Fosso-Tande,  
 J. Gayvert,  Qinghui Ge,  A. Ghysels,  G. Gidofalvi,  J. Gomes,  
 J. Gonthier,  A. Gunina,  D. Hait,  M. W. D. Hanson-Heine,  
 P. H. P. Harbach,  A. W. Hauser,  M. F. Herbst,  J. E. Herr,  
 E. G. Hohenstein,  Z. C. Holden,  Kerwin Hui,  B. C. Huynh,  T.-C. Jagau,  
 Hyunjun Ji,  B. Kaduk,  K. Khistyaev,  Jaehoon Kim,  P. Klunzinger,  K. Koh,  
 D. Kosenkov,  L. Koulias,  T. Kowalczyk,  C. M. Krauter,  A. Kunitsa,  
 Ka Un Lao,  A. Laurent,  K. V. Lawler,  Joonho Lee,  D. Lefrancois,  
 S. Lehtola,  D. S. Levine,  Yi-Pei Li,  You-Sheng Lin,  Fenglai Liu,  
 E. Livshits,  A. Luenser,  P. Manohar,  E. Mansoor,  S. F. Manzer,  
 Shan-Ping Mao,  Yuezhi Mao,  N. Mardirossian,  A. V. Marenich,  
 T. Markovich,  L. A. Martinez-Martinez,  S. A. Maurer,  N. J. Mayhall,  
 S. C. McKenzie,  J.-M. Mewes,  P. Morgante,  A. F. Morrison,  
 J. W. Mullinax,  K. Nanda,  T. S. Nguyen-Beck,  R. Olivares-Amaya,  
 J. A. Parkhill,  Zheng Pei,  T. M. Perrine,  F. Plasser,  P. Pokhilko,  
 S. Prager,  A. Prociuk,  E. Ramos,  D. R. Rehn,  F. Rob,  M. Scheurer,  
 M. Schneider,  N. Sergueev,  S. M. Sharada,  S. Sharma,  D. W. Small,  
 T. Stauch,  T. Stein,  Yu-Chuan Su,  A. J. W. Thom,  A. Tkatchenko,  
 T. Tsuchimochi,  N. M. Tubman,  L. Vogt,  M. L. Vidal,  O. Vydrov,  
 M. A. Watson,  J. Wenzel,  M. de Wergifosse,  T. A. Wesolowski,  A. White,  
 J. Witte,  A. Yamada,  Jun Yang,  K. Yao,  S. Yeganeh,  S. R. Yost,  
 Zhi-Qiang You,  A. Zech,  Igor Ying Zhang,  Xing Zhang,  Yan Zhao,  
 Ying Zhu,  B. R. Brooks,  G. K. L. Chan,  C. J. Cramer,  M. S. Gordon,  
 W. J. Hehre,  A. Klamt,  M. W. Schmidt,  C. D. Sherrill,  D. G. Truhlar,  
 A. Aspuru-Guzik,  R. Baer,  A. T. Bell,  N. A. Besley,  Jeng-Da Chai,  
 A. E. DePrince, III,  R. A. DiStasio Jr.,  A. Dreuw,  B. D. Dunietz,  
 T. R. Furlani,  Chao-Ping Hsu,  Yousung Jung,  Jing Kong,  D. S. Lambrecht,  
 WanZhen Liang,  C. Ochsenfeld,  V. A. Rassolov,  L. V. Slipchenko,  
 J. E. Subotnik,  T. Van Voorhis,  J. M. Herbert,  A. I. Krylov,  
 P. M. W. Gill,  M. Head-Gordon

 Contributors to earlier versions of Q-Chem not listed above: 
 R. D. Adamson,  B. Austin,  J. Baker,  G. J. O. Beran,  K. Brandhorst,  
 S. T. Brown,  E. F. C. Byrd,  A. K. Chakraborty,  C.-L. Cheng,  
 Siu Hung Chien,  D. M. Chipman,  D. L. Crittenden,  H. Dachsel,  
 R. J. Doerksen,  A. D. Dutoi,  L. Fusti-Molnar,  W. A. Goddard III,  
 A. Golubeva-Zadorozhnaya,  S. R. Gwaltney,  G. Hawkins,  A. Heyden,  
 S. Hirata,  G. Kedziora,  F. J. Keil,  C. Kelley,  Jihan Kim,  R. A. King,  
 R. Z. Khaliullin,  P. P. Korambath,  W. Kurlancheek,  A. M. Lee,  M. S. Lee,  
 S. V. Levchenko,  Ching Yeh Lin,  D. Liotard,  R. C. Lochan,  I. Lotan,  
 P. E. Maslen,  N. Nair,  D. P. O'Neill,  D. Neuhauser,  E. Neuscamman,  
 C. M. Oana,  R. Olson,  B. Peters,  R. Peverati,  P. A. Pieniazek,  
 Y. M. Rhee,  J. Ritchie,  M. A. Rohrdanz,  E. Rosta,  N. J. Russ,  
 H. F. Schaefer III,  N. E. Schultz,  N. Shenvi,  A. C. Simmonett,  A. Sodt,  
 D. Stuck,  K. S. Thanthiriwatte,  V. Vanovschi,  Tao Wang,  A. Warshel,  
 C. F. Williams,  Q. Wu,  X. Xu,  W. Zhang

 Please cite Q-Chem as follows:
 Y. Shao et al., Mol. Phys. 113, 184-215 (2015)
 DOI: 10.1080/00268976.2014.952696

 Q-Chem 5.2.1 for Intel X86 EM64T Linux

 Parts of Q-Chem use Armadillo 8.300.2 (Tropical Shenanigans).
 http://arma.sourceforge.net/

 Q-Chem begins on Tue Jan 19 02:33:24 2021  

Host: iqmol
0

     Scratch files written to /aimm/scratch/qchem16369//
 Jul1719 |scratch|qcdevops|jenkins|workspace|build_RNUM 6466   
Processing $rem in /opt/qchem/qc521/config/preferences:
	 MEM_TOTAL  2000 
NAlpha2: 26
NElect   26
Mult     1

Checking the input file for inconsistencies... 	...done.

--------------------------------------------------------------
User input:
--------------------------------------------------------------
$molecule
0 1
O    0.9683553    0.0024913    0.0948283
C    2.3883553    0.0024913    0.0948283
C    2.8950165    1.0484797    1.0744214
H    0.6450255   -0.6650145   -0.5303068
H    2.7450230    0.2315266   -0.8876334
H    2.7450243   -0.9628631    0.3877075
H    2.5383445    2.0138314    0.7815372
H    3.9650165    1.0484851    1.0744232
H    2.5383519    0.8194438    2.0568841
$end

$rem
BASIS  =  6-31G*
GUI  =  2
JOB_TYPE  =  Optimization
METHOD  =  wB97XD
SCF_CONVERGENCE  =  8
$end



--------------------------------------------------------------
 ----------------------------------------------------------------
             Standard Nuclear Orientation (Angstroms)
    I     Atom           X                Y                Z
 ----------------------------------------------------------------
    1      O       1.1595777245    -0.3879379092     0.0000002553
    2      C       0.0820784759     0.5369379577     0.0000001219
    3      C      -1.2357669139    -0.2204809981    -0.0000000261
    4      H       2.0005711646     0.0954150464     0.0000003587
    5      H       0.1399660454     1.1519846364    -0.8736511936
    6      H       0.1399660479     1.1519868873     0.8736499157
    7      H      -1.2936486999    -0.8355277928    -0.8736516237
    8      H      -2.0476887304     0.4764285828    -0.0000025040
    9      H      -1.2936569957    -0.8355258441     0.8736524295
 ----------------------------------------------------------------
 Molecular Point Group                 C1    NOp =  1
 Largest Abelian Subgroup              C1    NOp =  1
 Nuclear Repulsion Energy =          82.17537074 hartrees
 There are       13 alpha and       13 beta electrons
 Requested basis set is 6-31G(d)
 There are 24 shells and 57 basis functions

 Total QAlloc Memory Limit   2000 MB
 Mega-Array Size       188 MB
 MEM_STATIC part       192 MB
 A cutoff of  1.0D-11 yielded    299 shell pairs
 There are      1733 function pairs
 Smallest overlap matrix eigenvalue = 5.69E-03

 Scale SEOQF with 1.000000e-01/1.000000e+00/1.000000e+00

 Standard Electronic Orientation quadrupole field applied
 Nucleus-field energy     =     0.0000000032 hartrees
 Guess from superposition of atomic densities
 Warning:  Energy on first SCF cycle will be non-variational
 SAD guess density has 26.000000 electrons

 -----------------------------------------------------------------------
  General SCF calculation program by
  Eric Jon Sundstrom, Paul Horn, Yuezhi Mao, Dmitri Zuev, Alec White,
  David Stuck, Shaama M.S., Shane Yost, Joonho Lee, David Small,
  Daniel Levine, Susi Lehtola, Hugh Burton, Evgeny Epifanovsky,
  Bang C. Huynh
 -----------------------------------------------------------------------
 Exchange:     0.2220 Hartree-Fock + 1.0000 wB97X-D + LR-HF
 Correlation:  1.0000 wB97X-D
 Using SG-2 standard quadrature grid
 Dispersion:   Grimme D
 A restricted SCF calculation will be
 performed using DIIS
 SCF converges when DIIS error is below 1.0e-08
 ---------------------------------------
  Cycle       Energy         DIIS error
 ---------------------------------------
    1    -155.4727941481      1.02e-01  
    2    -154.9208484184      1.32e-02  
    3    -154.9342588327      1.25e-02  
    4    -154.9791293678      1.16e-03  
    5    -154.9795171927      4.36e-04  
    6    -154.9795854473      5.58e-05  
    7    -154.9795868652      5.98e-06  
    8    -154.9795869008      1.22e-06  
    9    -154.9795869020      3.18e-07  
   10    -154.9795869021      1.40e-07  
   11    -154.9795869021      1.70e-08  
   12    -154.9795869021      2.90e-09  Convergence criterion met
 ---------------------------------------
 SCF time:   CPU 11.04s  wall 11.00s 
 SCF   energy in the final basis set =     -154.9795869021
 Total energy in the final basis set =     -154.9795869021
 
 --------------------------------------------------------------
 
                    Orbital Energies (a.u.)
 --------------------------------------------------------------
 
 Alpha MOs
 -- Occupied --
-19.2551 -10.3293 -10.2730  -1.1072  -0.8462  -0.7052  -0.5982  -0.5550
 -0.4797  -0.4662  -0.4500  -0.4017  -0.3433
 -- Virtual --
  0.1681   0.2105   0.2531   0.2592   0.2678   0.2903   0.3024   0.3186
  0.6135   0.6432   0.6568   0.6649   0.7675   0.7688   0.9082   0.9733
  0.9918   1.0156   1.0281   1.0481   1.1028   1.1129   1.1249   1.2578
  1.4662   1.5258   1.5665   1.7576   1.8425   1.8678   2.0378   2.0533
  2.1505   2.2953   2.3387   2.4396   2.4668   2.5096   2.6002   2.7216
  2.9337   3.8292   4.2909   4.5092
 --------------------------------------------------------------
 
          Ground-State Mulliken Net Atomic Charges

     Atom                 Charge (a.u.)
  ----------------------------------------
      1 O                    -0.645564
      2 C                    -0.061540
      3 C                    -0.509707
      4 H                     0.405201
      5 H                     0.142416
      6 H                     0.142416
      7 H                     0.181203
      8 H                     0.164372
      9 H                     0.181203
  ----------------------------------------
  Sum of atomic charges =     0.000000

 -----------------------------------------------------------------
                    Cartesian Multipole Moments
 -----------------------------------------------------------------
    Charge (ESU x 10^10)
                -0.0000
    Dipole Moment (Debye)
         X       0.2105      Y       1.6355      Z      -0.0000
       Tot       1.6490
    Quadrupole Moments (Debye-Ang)
        XX     -16.3714     XY       1.9784     YY     -20.2146
        XZ      -0.0000     YZ       0.0000     ZZ     -19.6268
    Octopole Moments (Debye-Ang^2)
       XXX      16.0403    XXY       2.8740    XYY       0.6996
       YYY      -0.6337    XXZ       0.0000    XYZ       0.0000
       YYZ       0.0000    XZZ       1.2201    YZZ      -0.3580
       ZZZ       0.0000
    Hexadecapole Moments (Debye-Ang^3)
      XXXX    -128.8974   XXXY       0.2941   XXYY     -34.8332
      XYYY      -0.7361   YYYY     -53.7277   XXXZ      -0.0000
      XXYZ      -0.0000   XYYZ      -0.0000   YYYZ       0.0000
      XXZZ     -31.7547   XYZZ       0.8849   YYZZ     -12.9839
      XZZZ      -0.0000   YZZZ      -0.0000   ZZZZ     -30.7331
 -----------------------------------------------------------------
 Calculating analytic gradient of the SCF energy
 Gradient of SCF Energy
            1           2           3           4           5           6
    1  -0.0027548  -0.0041381  -0.0209988   0.0079618   0.0005419   0.0005418
    2   0.0047757   0.0205115  -0.0074719   0.0007443  -0.0147423  -0.0147423
    3  -0.0000001  -0.0000002   0.0000000   0.0000000   0.0153855  -0.0153855
            7           8           9
    1   0.0024648   0.0139172   0.0024643
    2   0.0105556  -0.0101862   0.0105556
    3   0.0129657   0.0000002  -0.0129657
 Max gradient component =       2.100E-02
 RMS gradient           =       1.019E-02
 Gradient time:  CPU 2.09 s  wall 2.08 s
 Geometry Optimization Parameters
   NAtoms,    NIC,     NZ,  NCons,   NDum,   NFix, NCnnct, MaxDiis
        9      51       0       0       0       0       0       0


** GEOMETRY OPTIMIZATION IN DELOCALIZED INTERNAL COORDINATES **
   Searching for a Minimum

   Optimization Cycle:   1

                       Coordinates (Angstroms)
     ATOM                X               Y               Z
      1  O         1.1595777245   -0.3879379092    0.0000002553
      2  C         0.0820784759    0.5369379577    0.0000001219
      3  C        -1.2357669139   -0.2204809981   -0.0000000261
      4  H         2.0005711646    0.0954150464    0.0000003587
      5  H         0.1399660454    1.1519846364   -0.8736511936
      6  H         0.1399660479    1.1519868873    0.8736499157
      7  H        -1.2936486999   -0.8355277928   -0.8736516237
      8  H        -2.0476887304    0.4764285828   -0.0000025040
      9  H        -1.2936569957   -0.8355258441    0.8736524295
   Point Group: c1    Number of degrees of freedom:    21


   Energy is   -154.979586902


 Attempting to generate delocalized internal coordinates
 Initial Hessian constructed with Jon Baker's OPTIMIZE code

 19 Hessian modes will be used to form the next step
  Hessian Eigenvalues:
     0.053714    0.059913    0.059913    0.060730    0.112475    0.137168
     0.160000    0.160000    0.160000    0.160000    0.220731    0.303666
     0.372301    0.372301    0.372301    0.372301    0.372301    0.424604
     0.533769

 Minimum search - taking simple RFO step
 Searching for Lamda that Minimizes Along All modes
 Value Taken    Lamda =  -0.00576047
 Step Taken.  Stepsize is  0.136346

                             Maximum     Tolerance    Cnvgd?
         Gradient           0.027416      0.000300      NO
         Displacement       0.068648      0.001200      NO
         Energy change     *********      0.000001      NO


 New Cartesian Coordinates Obtained by Inverse Iteration

 Displacement from previous Coordinates is:  0.163818
 ----------------------------------------------------------------
             Standard Nuclear Orientation (Angstroms)
    I     Atom           X                Y                Z
 ----------------------------------------------------------------
    1      O       1.1412118460    -0.4101148333     0.0000006710
    2      C       0.0926920550     0.5469647177    -0.0000001286
    3      C      -1.2182135941    -0.2218249393    -0.0000006531
    4      H       1.9733411808     0.0742371245     0.0000013243
    5      H       0.1444054405     1.1888792399    -0.8910340298
    6      H       0.1444055452     1.1888803664     0.8910329609
    7      H      -1.2835604733    -0.8558234263    -0.8885136565
    8      H      -2.0593200901     0.4779025355    -0.0000031143
    9      H      -1.2835637916    -0.8558202187     0.8885143600
 ----------------------------------------------------------------
 Molecular Point Group                 C1    NOp =  1
 Largest Abelian Subgroup              C1    NOp =  1
 Nuclear Repulsion Energy =          81.87565147 hartrees
 There are       13 alpha and       13 beta electrons
 Applying Cartesian multipole field
    Component          Value
    ---------          -----
     (2,0,0)        1.00000E-11
     (0,2,0)        2.00000E-10
     (0,0,2)       -3.00000E-10
 Nucleus-field energy     =     0.0000000034 hartrees
 Requested basis set is 6-31G(d)
 There are 24 shells and 57 basis functions
 A cutoff of  1.0D-11 yielded    299 shell pairs
 There are      1733 function pairs
 Smallest overlap matrix eigenvalue = 5.89E-03
 Guess MOs from SCF MO coefficient file

 -----------------------------------------------------------------------
  General SCF calculation program by
  Eric Jon Sundstrom, Paul Horn, Yuezhi Mao, Dmitri Zuev, Alec White,
  David Stuck, Shaama M.S., Shane Yost, Joonho Lee, David Small,
  Daniel Levine, Susi Lehtola, Hugh Burton, Evgeny Epifanovsky,
  Bang C. Huynh
 -----------------------------------------------------------------------
 Exchange:     0.2220 Hartree-Fock + 1.0000 wB97X-D + LR-HF
 Correlation:  1.0000 wB97X-D
 Using SG-2 standard quadrature grid
 Dispersion:   Grimme D
 A restricted SCF calculation will be
 performed using DIIS
 SCF converges when DIIS error is below 1.0e-08
 ---------------------------------------
  Cycle       Energy         DIIS error
 ---------------------------------------
    1    -154.9815530229      1.20e-03  
    2    -154.9822602986      5.81e-04  
    3    -154.9823730405      2.47e-04  
    4    -154.9823951049      6.52e-05  
    5    -154.9823964268      1.79e-05  
    6    -154.9823965676      2.34e-06  
    7    -154.9823965723      3.41e-07  
    8    -154.9823965724      1.10e-07  
    9    -154.9823965724      4.49e-08  
   10    -154.9823965724      7.89e-09  Convergence criterion met
 ---------------------------------------
 SCF time:   CPU 9.27s  wall 9.00s 
 SCF   energy in the final basis set =     -154.9823965724
 Total energy in the final basis set =     -154.9823965724
 
 --------------------------------------------------------------
 
                    Orbital Energies (a.u.)
 --------------------------------------------------------------
 
 Alpha MOs
 -- Occupied --
-19.2588 -10.3371 -10.2799  -1.1126  -0.8418  -0.6992  -0.5999  -0.5492
 -0.4802  -0.4600  -0.4440  -0.4078  -0.3457
 -- Virtual --
  0.1679   0.2054   0.2426   0.2509   0.2622   0.2857   0.2985   0.3194
  0.6154   0.6481   0.6540   0.6742   0.7645   0.7743   0.9054   0.9516
  0.9744   0.9950   1.0103   1.0335   1.0891   1.1163   1.1205   1.2515
  1.4685   1.5299   1.5629   1.7490   1.8337   1.8839   2.0191   2.0383
  2.1329   2.2612   2.3244   2.4178   2.4786   2.5017   2.5883   2.7039
  2.9388   3.8260   4.2767   4.4999
 --------------------------------------------------------------
 
          Ground-State Mulliken Net Atomic Charges

     Atom                 Charge (a.u.)
  ----------------------------------------
      1 O                    -0.633860
      2 C                    -0.063341
      3 C                    -0.500848
      4 H                     0.406216
      5 H                     0.138366
      6 H                     0.138366
      7 H                     0.178220
      8 H                     0.158660
      9 H                     0.178220
  ----------------------------------------
  Sum of atomic charges =     0.000000

 -----------------------------------------------------------------
                    Cartesian Multipole Moments
 -----------------------------------------------------------------
    Charge (ESU x 10^10)
                -0.0000
    Dipole Moment (Debye)
         X       0.2762      Y       1.6095      Z       0.0000
       Tot       1.6330
    Quadrupole Moments (Debye-Ang)
        XX     -16.5467     XY       1.9368     YY     -20.3120
        XZ       0.0000     YZ       0.0000     ZZ     -19.7699
    Octopole Moments (Debye-Ang^2)
       XXX      15.9530    XXY       2.6190    XYY       0.6770
       YYY      -0.5394    XXZ       0.0000    XYZ       0.0000
       YYZ      -0.0000    XZZ       1.2935    YZZ      -0.3654
       ZZZ       0.0000
    Hexadecapole Moments (Debye-Ang^3)
      XXXX    -128.1956   XXXY       0.0332   XXYY     -34.9367
      XYYY      -0.6121   YYYY     -56.2916   XXXZ      -0.0000
      XXYZ      -0.0000   XYYZ      -0.0000   YYYZ       0.0000
      XXZZ     -31.5926   XYZZ       0.9722   YYZZ     -13.4762
      XZZZ      -0.0000   YZZZ       0.0000   ZZZZ     -31.8074
 -----------------------------------------------------------------
 Calculating analytic gradient of the SCF energy
 Gradient of SCF Energy
            1           2           3           4           5           6
    1   0.0009921   0.0010391  -0.0013716  -0.0015637  -0.0003680  -0.0003679
    2  -0.0030174   0.0071077  -0.0030947   0.0004063  -0.0012954  -0.0012954
    3   0.0000000   0.0000000  -0.0000001   0.0000000   0.0001972  -0.0001972
            7           8           9
    1   0.0001235   0.0013930   0.0001235
    2   0.0001930   0.0008027   0.0001931
    3  -0.0000207   0.0000000   0.0000207
 Max gradient component =       7.108E-03
 RMS gradient           =       1.744E-03
 Gradient time:  CPU 2.08 s  wall 2.07 s
 Geometry Optimization Parameters
   NAtoms,    NIC,     NZ,  NCons,   NDum,   NFix, NCnnct, MaxDiis
        9      51       0       0       0       0       0       0

 Cartesian Hessian Update
 Hessian updated using BFGS update


** GEOMETRY OPTIMIZATION IN DELOCALIZED INTERNAL COORDINATES **
   Searching for a Minimum

   Optimization Cycle:   2

                       Coordinates (Angstroms)
     ATOM                X               Y               Z
      1  O         1.1412118460   -0.4101148333    0.0000006710
      2  C         0.0926920550    0.5469647177   -0.0000001286
      3  C        -1.2182135941   -0.2218249393   -0.0000006531
      4  H         1.9733411808    0.0742371245    0.0000013243
      5  H         0.1444054405    1.1888792399   -0.8910340298
      6  H         0.1444055452    1.1888803664    0.8910329609
      7  H        -1.2835604733   -0.8558234263   -0.8885136565
      8  H        -2.0593200901    0.4779025355   -0.0000031143
      9  H        -1.2835637916   -0.8558202187    0.8885143600
   Point Group: c1    Number of degrees of freedom:    21


   Energy is   -154.982396572

 Hessian updated using BFGS update

 15 Hessian modes will be used to form the next step
  Hessian Eigenvalues:
     0.006533    0.053714    0.059619    0.059913    0.060166    0.113202
     0.137168    0.157056    0.164483    0.230990    0.303209    0.358985
     0.374412    0.426073    0.537306

 Minimum search - taking simple RFO step
 Searching for Lamda that Minimizes Along All modes
 Value Taken    Lamda =  -0.00015410
 Step Taken.  Stepsize is  0.035071

                             Maximum     Tolerance    Cnvgd?
         Gradient           0.002361      0.000300      NO
         Displacement       0.023963      0.001200      NO
         Energy change     -0.002810      0.000001      NO


 New Cartesian Coordinates Obtained by Inverse Iteration

 Displacement from previous Coordinates is:  0.034662
 ----------------------------------------------------------------
             Standard Nuclear Orientation (Angstroms)
    I     Atom           X                Y                Z
 ----------------------------------------------------------------
    1      O       1.1464338361    -0.4067836745     0.0000009109
    2      C       0.0928340915     0.5423456524    -0.0000004066
    3      C      -1.2208475472    -0.2190571269    -0.0000006001
    4      H       1.9822825762     0.0729274319     0.0000017413
    5      H       0.1470310268     1.1905873765    -0.8888892152
    6      H       0.1470301547     1.1905886425     0.8888874954
    7      H      -1.2867874318    -0.8554051550    -0.8877057755
    8      H      -2.0697890474     0.4734801219    -0.0000026179
    9      H      -1.2867895405    -0.8554027024     0.8877062014
 ----------------------------------------------------------------
 Molecular Point Group                 C1    NOp =  1
 Largest Abelian Subgroup              C1    NOp =  1
 Nuclear Repulsion Energy =          81.81321467 hartrees
 There are       13 alpha and       13 beta electrons
 Applying Cartesian multipole field
    Component          Value
    ---------          -----
     (2,0,0)        1.00000E-11
     (0,2,0)        2.00000E-10
     (0,0,2)       -3.00000E-10
 Nucleus-field energy     =     0.0000000034 hartrees
 Requested basis set is 6-31G(d)
 There are 24 shells and 57 basis functions
 A cutoff of  1.0D-11 yielded    299 shell pairs
 There are      1733 function pairs
 Smallest overlap matrix eigenvalue = 5.92E-03
 Guess MOs from SCF MO coefficient file

 -----------------------------------------------------------------------
  General SCF calculation program by
  Eric Jon Sundstrom, Paul Horn, Yuezhi Mao, Dmitri Zuev, Alec White,
  David Stuck, Shaama M.S., Shane Yost, Joonho Lee, David Small,
  Daniel Levine, Susi Lehtola, Hugh Burton, Evgeny Epifanovsky,
  Bang C. Huynh
 -----------------------------------------------------------------------
 Exchange:     0.2220 Hartree-Fock + 1.0000 wB97X-D + LR-HF
 Correlation:  1.0000 wB97X-D
 Using SG-2 standard quadrature grid
 Dispersion:   Grimme D
 A restricted SCF calculation will be
 performed using DIIS
 SCF converges when DIIS error is below 1.0e-08
 ---------------------------------------
  Cycle       Energy         DIIS error
 ---------------------------------------
    1    -154.9824401049      2.11e-04  
    2    -154.9824653645      5.11e-05  
    3    -154.9824663272      3.63e-05  
    4    -154.9824667957      6.70e-06  
    5    -154.9824668094      2.33e-06  
    6    -154.9824668115      4.58e-07  
    7    -154.9824668117      6.42e-08  
    8    -154.9824668117      1.54e-08  
    9    -154.9824668117      5.08e-09  Convergence criterion met
 ---------------------------------------
 SCF time:   CPU 8.35s  wall 8.00s 
 SCF   energy in the final basis set =     -154.9824668117
 Total energy in the final basis set =     -154.9824668117
 
 --------------------------------------------------------------
 
                    Orbital Energies (a.u.)
 --------------------------------------------------------------
 
 Alpha MOs
 -- Occupied --
-19.2588 -10.3376 -10.2805  -1.1125  -0.8419  -0.6995  -0.6003  -0.5482
 -0.4802  -0.4613  -0.4435  -0.4071  -0.3451
 -- Virtual --
  0.1673   0.2058   0.2420   0.2502   0.2617   0.2851   0.3003   0.3201
  0.6156   0.6477   0.6545   0.6736   0.7656   0.7735   0.9051   0.9500
  0.9745   0.9947   1.0091   1.0322   1.0883   1.1148   1.1183   1.2541
  1.4676   1.5284   1.5676   1.7471   1.8335   1.8766   2.0176   2.0403
  2.1340   2.2633   2.3160   2.4177   2.4750   2.5027   2.5929   2.7091
  2.9367   3.8261   4.2758   4.4994
 --------------------------------------------------------------
 
          Ground-State Mulliken Net Atomic Charges

     Atom                 Charge (a.u.)
  ----------------------------------------
      1 O                    -0.634654
      2 C                    -0.060836
      3 C                    -0.501545
      4 H                     0.406926
      5 H                     0.137194
      6 H                     0.137194
      7 H                     0.178013
      8 H                     0.159696
      9 H                     0.178013
  ----------------------------------------
  Sum of atomic charges =     0.000000

 -----------------------------------------------------------------
                    Cartesian Multipole Moments
 -----------------------------------------------------------------
    Charge (ESU x 10^10)
                -0.0000
    Dipole Moment (Debye)
         X       0.2749      Y       1.5923      Z       0.0000
       Tot       1.6158
    Quadrupole Moments (Debye-Ang)
        XX     -16.4466     XY       1.9361     YY     -20.3335
        XZ       0.0000     YZ       0.0000     ZZ     -19.8060
    Octopole Moments (Debye-Ang^2)
       XXX      15.9594    XXY       2.6158    XYY       0.6857
       YYY      -0.5748    XXZ       0.0000    XYZ       0.0000
       YYZ       0.0000    XZZ       1.2935    YZZ      -0.3980
       ZZZ       0.0000
    Hexadecapole Moments (Debye-Ang^3)
      XXXX    -128.1283   XXXY      -0.0098   XXYY     -35.0834
      XYYY      -0.6106   YYYY     -56.0832   XXXZ      -0.0000
      XXYZ      -0.0000   XYYZ      -0.0000   YYYZ       0.0000
      XXZZ     -31.7651   XYZZ       0.9617   YYZZ     -13.4712
      XZZZ      -0.0000   YZZZ       0.0000   ZZZZ     -31.8703
 -----------------------------------------------------------------
 Calculating analytic gradient of the SCF energy
 Gradient of SCF Energy
            1           2           3           4           5           6
    1   0.0012374  -0.0005460  -0.0007861   0.0003348   0.0000733   0.0000733
    2  -0.0005263   0.0009238  -0.0002829  -0.0002259  -0.0001391  -0.0001391
    3   0.0000000  -0.0000000   0.0000000   0.0000000  -0.0002181   0.0002181
            7           8           9
    1   0.0000745  -0.0005356   0.0000744
    2   0.0000032   0.0003831   0.0000032
    3  -0.0002347  -0.0000000   0.0002348
 Max gradient component =       1.237E-03
 RMS gradient           =       4.092E-04
 Gradient time:  CPU 2.08 s  wall 2.08 s
 Geometry Optimization Parameters
   NAtoms,    NIC,     NZ,  NCons,   NDum,   NFix, NCnnct, MaxDiis
        9      51       0       0       0       0       0       0

 Cartesian Hessian Update
 Hessian updated using BFGS update


** GEOMETRY OPTIMIZATION IN DELOCALIZED INTERNAL COORDINATES **
   Searching for a Minimum

   Optimization Cycle:   3

                       Coordinates (Angstroms)
     ATOM                X               Y               Z
      1  O         1.1464338361   -0.4067836745    0.0000009109
      2  C         0.0928340915    0.5423456524   -0.0000004066
      3  C        -1.2208475472   -0.2190571269   -0.0000006001
      4  H         1.9822825762    0.0729274319    0.0000017413
      5  H         0.1470310268    1.1905873765   -0.8888892152
      6  H         0.1470301547    1.1905886425    0.8888874954
      7  H        -1.2867874318   -0.8554051550   -0.8877057755
      8  H        -2.0697890474    0.4734801219   -0.0000026179
      9  H        -1.2867895405   -0.8554027024    0.8877062014
   Point Group: c1    Number of degrees of freedom:    21


   Energy is   -154.982466812

 Hessian updated using BFGS update

 15 Hessian modes will be used to form the next step
  Hessian Eigenvalues:
     0.056147    0.059913    0.060171    0.110554    0.137168    0.151297
     0.160034    0.171725    0.256799    0.310172    0.359468    0.373646
     0.375323    0.431850    0.542647

 Minimum search - taking simple RFO step
 Searching for Lamda that Minimizes Along All modes
 Value Taken    Lamda =  -0.00001514
 Step Taken.  Stepsize is  0.007593

                             Maximum     Tolerance    Cnvgd?
         Gradient           0.001449      0.000300      NO
         Displacement       0.003133      0.001200      NO
         Energy change     -0.000070      0.000001      NO


 New Cartesian Coordinates Obtained by Inverse Iteration

 Displacement from previous Coordinates is:  0.010567
 ----------------------------------------------------------------
             Standard Nuclear Orientation (Angstroms)
    I     Atom           X                Y                Z
 ----------------------------------------------------------------
    1      O       1.1435543572    -0.4072340119     0.0000008745
    2      C       0.0928105395     0.5420878121    -0.0000004016
    3      C      -1.2191307443    -0.2189032853    -0.0000006218
    4      H       1.9791525876     0.0727191561     0.0000017408
    5      H       0.1473474161     1.1914592224    -0.8880347993
    6      H       0.1473463782     1.1914604661     0.8880331324
    7      H      -1.2859645500    -0.8555851629    -0.8870895993
    8      H      -2.0677513992     0.4728589949    -0.0000026381
    9      H      -1.2859664666    -0.8555826253     0.8870900462
 ----------------------------------------------------------------
 Molecular Point Group                 C1    NOp =  1
 Largest Abelian Subgroup              C1    NOp =  1
 Nuclear Repulsion Energy =          81.89455404 hartrees
 There are       13 alpha and       13 beta electrons
 Applying Cartesian multipole field
    Component          Value
    ---------          -----
     (2,0,0)        1.00000E-11
     (0,2,0)        2.00000E-10
     (0,0,2)       -3.00000E-10
 Nucleus-field energy     =     0.0000000034 hartrees
 Requested basis set is 6-31G(d)
 There are 24 shells and 57 basis functions
 A cutoff of  1.0D-11 yielded    299 shell pairs
 There are      1733 function pairs
 Smallest overlap matrix eigenvalue = 5.90E-03
 Guess MOs from SCF MO coefficient file

 -----------------------------------------------------------------------
  General SCF calculation program by
  Eric Jon Sundstrom, Paul Horn, Yuezhi Mao, Dmitri Zuev, Alec White,
  David Stuck, Shaama M.S., Shane Yost, Joonho Lee, David Small,
  Daniel Levine, Susi Lehtola, Hugh Burton, Evgeny Epifanovsky,
  Bang C. Huynh
 -----------------------------------------------------------------------
 Exchange:     0.2220 Hartree-Fock + 1.0000 wB97X-D + LR-HF
 Correlation:  1.0000 wB97X-D
 Using SG-2 standard quadrature grid
 Dispersion:   Grimme D
 A restricted SCF calculation will be
 performed using DIIS
 SCF converges when DIIS error is below 1.0e-08
 ---------------------------------------
  Cycle       Energy         DIIS error
 ---------------------------------------
    1    -154.9824721025      6.64e-05  
    2    -154.9824745387      1.70e-05  
    3    -154.9824746623      1.09e-05  
    4    -154.9824747084      1.24e-06  
    5    -154.9824747093      6.73e-07  
    6    -154.9824747094      2.09e-07  
    7    -154.9824747094      2.18e-08  
    8    -154.9824747094      7.15e-09  Convergence criterion met
 ---------------------------------------
 SCF time:   CPU 7.48s  wall 7.00s 
 SCF   energy in the final basis set =     -154.9824747094
 Total energy in the final basis set =     -154.9824747094
 
 --------------------------------------------------------------
 
                    Orbital Energies (a.u.)
 --------------------------------------------------------------
 
 Alpha MOs
 -- Occupied --
-19.2589 -10.3373 -10.2801  -1.1133  -0.8421  -0.6994  -0.6009  -0.5483
 -0.4806  -0.4612  -0.4434  -0.4075  -0.3450
 -- Virtual --
  0.1673   0.2060   0.2419   0.2503   0.2619   0.2854   0.3008   0.3210
  0.6153   0.6477   0.6551   0.6741   0.7665   0.7737   0.9050   0.9497
  0.9749   0.9950   1.0092   1.0324   1.0888   1.1149   1.1184   1.2539
  1.4685   1.5286   1.5680   1.7473   1.8328   1.8783   2.0168   2.0414
  2.1356   2.2634   2.3183   2.4197   2.4771   2.5049   2.5929   2.7104
  2.9380   3.8271   4.2764   4.4995
 --------------------------------------------------------------
 
          Ground-State Mulliken Net Atomic Charges

     Atom                 Charge (a.u.)
  ----------------------------------------
      1 O                    -0.633746
      2 C                    -0.060875
      3 C                    -0.501620
      4 H                     0.406911
      5 H                     0.136877
      6 H                     0.136877
      7 H                     0.177966
      8 H                     0.159644
      9 H                     0.177966
  ----------------------------------------
  Sum of atomic charges =     0.000000

 -----------------------------------------------------------------
                    Cartesian Multipole Moments
 -----------------------------------------------------------------
    Charge (ESU x 10^10)
                -0.0000
    Dipole Moment (Debye)
         X       0.2813      Y       1.5892      Z       0.0000
       Tot       1.6139
    Quadrupole Moments (Debye-Ang)
        XX     -16.4492     XY       1.9348     YY     -20.3307
        XZ       0.0000     YZ       0.0000     ZZ     -19.8106
    Octopole Moments (Debye-Ang^2)
       XXX      15.9483    XXY       2.5996    XYY       0.6916
       YYY      -0.5708    XXZ       0.0000    XYZ       0.0000
       YYZ       0.0000    XZZ       1.3031    YZZ      -0.4017
       ZZZ       0.0000
    Hexadecapole Moments (Debye-Ang^3)
      XXXX    -127.8293   XXXY      -0.0132   XXYY     -35.0022
      XYYY      -0.6145   YYYY     -56.0938   XXXZ      -0.0000
      XXYZ      -0.0000   XYYZ      -0.0000   YYYZ       0.0000
      XXZZ     -31.6813   XYZZ       0.9551   YYZZ     -13.4811
      XZZZ      -0.0000   YZZZ       0.0000   ZZZZ     -31.8655
 -----------------------------------------------------------------
 Calculating analytic gradient of the SCF energy
 Gradient of SCF Energy
            1           2           3           4           5           6
    1   0.0000086  -0.0001930   0.0000618   0.0000399   0.0001039   0.0001039
    2  -0.0001623   0.0000906  -0.0000002  -0.0000084  -0.0000515  -0.0000515
    3  -0.0000000   0.0000000   0.0000000   0.0000000  -0.0000103   0.0000103
            7           8           9
    1  -0.0000221  -0.0000809  -0.0000221
    2   0.0000419   0.0000994   0.0000419
    3  -0.0000229  -0.0000000   0.0000229
 Max gradient component =       1.930E-04
 RMS gradient           =       6.842E-05
 Gradient time:  CPU 2.08 s  wall 2.08 s
 Geometry Optimization Parameters
   NAtoms,    NIC,     NZ,  NCons,   NDum,   NFix, NCnnct, MaxDiis
        9      51       0       0       0       0       0       0

 Cartesian Hessian Update
 Hessian updated using BFGS update


** GEOMETRY OPTIMIZATION IN DELOCALIZED INTERNAL COORDINATES **
   Searching for a Minimum

   Optimization Cycle:   4

                       Coordinates (Angstroms)
     ATOM                X               Y               Z
      1  O         1.1435543572   -0.4072340119    0.0000008745
      2  C         0.0928105395    0.5420878121   -0.0000004016
      3  C        -1.2191307443   -0.2189032853   -0.0000006218
      4  H         1.9791525876    0.0727191561    0.0000017408
      5  H         0.1473474161    1.1914592224   -0.8880347993
      6  H         0.1473463782    1.1914604661    0.8880331324
      7  H        -1.2859645500   -0.8555851629   -0.8870895993
      8  H        -2.0677513992    0.4728589949   -0.0000026381
      9  H        -1.2859664666   -0.8555826253    0.8870900462
   Point Group: c1    Number of degrees of freedom:    21


   Energy is   -154.982474709

 Hessian updated using BFGS update

 17 Hessian modes will be used to form the next step
  Hessian Eigenvalues:
     0.006533    0.053714    0.054211    0.059913    0.060047    0.112943
     0.150959    0.159459    0.160000    0.172610    0.256457    0.316601
     0.359302    0.369095    0.374232    0.422139    0.538833

 Minimum search - taking simple RFO step
 Searching for Lamda that Minimizes Along All modes
 Value Taken    Lamda =   0.00000000
 Step Taken.  Stepsize is  0.001852

                             Maximum     Tolerance    Cnvgd?
         Gradient           0.000115      0.000300     YES
         Displacement       0.000960      0.001200     YES
         Energy change     -0.000008      0.000001      NO


                       Distance Matrix (Angstroms)
             O (  1)   C (  2)   C (  3)   H (  4)   H (  5)   H (  6)
   C (  2)  1.416077
   C (  3)  2.370179  1.516673
   H (  4)  0.963628  1.943860  3.211551
   H (  5)  2.082512  1.101482  2.155224  2.322864
   H (  6)  2.082512  1.101482  2.155224  2.322864  1.776068
   H (  7)  2.624978  2.154400  1.093964  3.508514  2.498955  3.065263
   H (  8)  3.329722  2.161671  1.094848  4.066638  2.492318  2.492319
   H (  9)  2.624979  2.154400  1.093964  3.508514  3.065263  2.498954
             H (  7)   H (  8)
   H (  8)  1.778448
   H (  9)  1.774180  1.778448
 
 Final energy is   -154.982474709443     


 ******************************
 **  OPTIMIZATION CONVERGED  **
 ******************************

                       Coordinates (Angstroms)
     ATOM                X               Y               Z
      1  O         1.1435543572   -0.4072340119    0.0000008745
      2  C         0.0928105395    0.5420878121   -0.0000004016
      3  C        -1.2191307443   -0.2189032853   -0.0000006218
      4  H         1.9791525876    0.0727191561    0.0000017408
      5  H         0.1473474161    1.1914592224   -0.8880347993
      6  H         0.1473463782    1.1914604661    0.8880331324
      7  H        -1.2859645500   -0.8555851629   -0.8870895993
      8  H        -2.0677513992    0.4728589949   -0.0000026381
      9  H        -1.2859664666   -0.8555826253    0.8870900462

Z-matrix Print:
$molecule
0 1
C 
H  1 1.101482
H  1 1.101482 2 107.455984
O  1 1.416077 2 111.007197 3 121.553830 0
H  4 0.963628 1 108.030630 2 -59.725158 0
C  1 1.516673 2 109.793558 3 -119.369500 0
H  6 1.093964 1 110.173419 2 179.207302 0
H  6 1.093964 1 110.173426 2 -61.279864 0
H  6 1.094848 1 110.698569 2 58.963727 0
$end

 
 --------------------------------------------------------------
 
                    Orbital Energies (a.u.)
 --------------------------------------------------------------
 
 Alpha MOs
 -- Occupied --
-19.2589 -10.3373 -10.2801  -1.1133  -0.8421  -0.6994  -0.6009  -0.5483
 -0.4806  -0.4612  -0.4434  -0.4075  -0.3450
 -- Virtual --
  0.1673   0.2060   0.2419   0.2503   0.2619   0.2854   0.3008   0.3210
  0.6153   0.6477   0.6551   0.6741   0.7665   0.7737   0.9050   0.9497
  0.9749   0.9950   1.0092   1.0324   1.0888   1.1149   1.1184   1.2539
  1.4685   1.5286   1.5680   1.7473   1.8328   1.8783   2.0168   2.0414
  2.1356   2.2634   2.3183   2.4197   2.4771   2.5049   2.5929   2.7104
  2.9380   3.8271   4.2764   4.4995
 --------------------------------------------------------------
 
          Ground-State Mulliken Net Atomic Charges

     Atom                 Charge (a.u.)
  ----------------------------------------
      1 O                    -0.633746
      2 C                    -0.060875
      3 C                    -0.501620
      4 H                     0.406911
      5 H                     0.136877
      6 H                     0.136877
      7 H                     0.177966
      8 H                     0.159644
      9 H                     0.177966
  ----------------------------------------
  Sum of atomic charges =     0.000000

 -----------------------------------------------------------------
                    Cartesian Multipole Moments
 -----------------------------------------------------------------
    Charge (ESU x 10^10)
                -0.0000
    Dipole Moment (Debye)
         X       0.2813      Y       1.5892      Z       0.0000
       Tot       1.6139
    Quadrupole Moments (Debye-Ang)
        XX     -16.4492     XY       1.9348     YY     -20.3307
        XZ       0.0000     YZ       0.0000     ZZ     -19.8106
    Octopole Moments (Debye-Ang^2)
       XXX      15.9483    XXY       2.5996    XYY       0.6916
       YYY      -0.5708    XXZ       0.0000    XYZ       0.0000
       YYZ       0.0000    XZZ       1.3031    YZZ      -0.4017
       ZZZ       0.0000
    Hexadecapole Moments (Debye-Ang^3)
      XXXX    -127.8293   XXXY      -0.0132   XXYY     -35.0022
      XYYY      -0.6145   YYYY     -56.0938   XXXZ      -0.0000
      XXYZ      -0.0000   XYYZ      -0.0000   YYYZ       0.0000
      XXZZ     -31.6813   XYZZ       0.9551   YYZZ     -13.4811
      XZZZ      -0.0000   YZZZ       0.0000   ZZZZ     -31.8655
 -----------------------------------------------------------------
Archival summary:
1\1\iqmol\OPT\ProcedureUnspecified\6-31G*\126\epif\TueJan1902:34:092021TueJan1902:34:092021\0\\#,OPT,ProcedureUnspecified,6-31G*,\\0,1\C\H,1,1.10148\H,1,1.10148,2,107.456\O,1,1.41608,2,111.007,3,121.554,0\H,4,0.963628,1,108.031,2,-59.7252,0\C,1,1.51667,2,109.794,3,-119.369,0\H,6,1.09396,1,110.173,2,179.207,0\H,6,1.09396,1,110.173,2,-61.2799,0\H,6,1.09485,1,110.699,2,58.9637,0\\\@

 Total job time:  44.65s(wall), 44.65s(cpu) 
 Tue Jan 19 02:34:09 2021

        *************************************************************
        *                                                           *
        *  Thank you very much for using Q-Chem.  Have a nice day.  *
        *                                                           *
        *************************************************************



Running Job 2 of 2 input
qchem input_16369.1 /aimm/scratch/qchem16369/ 0
/home/epif/aimm/qcprog.exe_s input_16369.1 /aimm/scratch/qchem16369/
8388608
                  Welcome to Q-Chem
     A Quantum Leap Into The Future Of Chemistry


 Q-Chem 5.2, Q-Chem, Inc., Pleasanton, CA (2019)

 Yihan Shao,  Zhengting Gan,  E. Epifanovsky,  A. T. B. Gilbert,  M. Wormit,  
 J. Kussmann,  A. W. Lange,  A. Behn,  Jia Deng,  Xintian Feng,  D. Ghosh,  
 M. Goldey,  P. R. Horn,  L. D. Jacobson,  I. Kaliman,  T. Kus,  A. Landau,  
 Jie Liu,  E. I. Proynov,  R. M. Richard,  R. P. Steele,  E. J. Sundstrom,  
 H. L. Woodcock III,  P. M. Zimmerman,  D. Zuev,  B. Albrecht,  E. Alguire,  
 S. A. Baeppler,  D. Barton,  Z. Benda,  Y. A. Bernard,  E. J. Berquist,  
 K. B. Bravaya,  H. Burton,  D. Casanova,  Chun-Min Chang,  Yunqing Chen,  
 A. Chien,  K. D. Closser,  M. P. Coons,  S. Coriani,  S. Dasgupta,  
 A. L. Dempwolff,  M. Diedenhofen,  Hainam Do,  R. G. Edgar,  Po-Tung Fang,  
 S. Faraji,  S. Fatehi,  Qingguo Feng,  K. D. Fenk,  J. Fosso-Tande,  
 J. Gayvert,  Qinghui Ge,  A. Ghysels,  G. Gidofalvi,  J. Gomes,  
 J. Gonthier,  A. Gunina,  D. Hait,  M. W. D. Hanson-Heine,  
 P. H. P. Harbach,  A. W. Hauser,  M. F. Herbst,  J. E. Herr,  
 E. G. Hohenstein,  Z. C. Holden,  Kerwin Hui,  B. C. Huynh,  T.-C. Jagau,  
 Hyunjun Ji,  B. Kaduk,  K. Khistyaev,  Jaehoon Kim,  P. Klunzinger,  K. Koh,  
 D. Kosenkov,  L. Koulias,  T. Kowalczyk,  C. M. Krauter,  A. Kunitsa,  
 Ka Un Lao,  A. Laurent,  K. V. Lawler,  Joonho Lee,  D. Lefrancois,  
 S. Lehtola,  D. S. Levine,  Yi-Pei Li,  You-Sheng Lin,  Fenglai Liu,  
 E. Livshits,  A. Luenser,  P. Manohar,  E. Mansoor,  S. F. Manzer,  
 Shan-Ping Mao,  Yuezhi Mao,  N. Mardirossian,  A. V. Marenich,  
 T. Markovich,  L. A. Martinez-Martinez,  S. A. Maurer,  N. J. Mayhall,  
 S. C. McKenzie,  J.-M. Mewes,  P. Morgante,  A. F. Morrison,  
 J. W. Mullinax,  K. Nanda,  T. S. Nguyen-Beck,  R. Olivares-Amaya,  
 J. A. Parkhill,  Zheng Pei,  T. M. Perrine,  F. Plasser,  P. Pokhilko,  
 S. Prager,  A. Prociuk,  E. Ramos,  D. R. Rehn,  F. Rob,  M. Scheurer,  
 M. Schneider,  N. Sergueev,  S. M. Sharada,  S. Sharma,  D. W. Small,  
 T. Stauch,  T. Stein,  Yu-Chuan Su,  A. J. W. Thom,  A. Tkatchenko,  
 T. Tsuchimochi,  N. M. Tubman,  L. Vogt,  M. L. Vidal,  O. Vydrov,  
 M. A. Watson,  J. Wenzel,  M. de Wergifosse,  T. A. Wesolowski,  A. White,  
 J. Witte,  A. Yamada,  Jun Yang,  K. Yao,  S. Yeganeh,  S. R. Yost,  
 Zhi-Qiang You,  A. Zech,  Igor Ying Zhang,  Xing Zhang,  Yan Zhao,  
 Ying Zhu,  B. R. Brooks,  G. K. L. Chan,  C. J. Cramer,  M. S. Gordon,  
 W. J. Hehre,  A. Klamt,  M. W. Schmidt,  C. D. Sherrill,  D. G. Truhlar,  
 A. Aspuru-Guzik,  R. Baer,  A. T. Bell,  N. A. Besley,  Jeng-Da Chai,  
 A. E. DePrince, III,  R. A. DiStasio Jr.,  A. Dreuw,  B. D. Dunietz,  
 T. R. Furlani,  Chao-Ping Hsu,  Yousung Jung,  Jing Kong,  D. S. Lambrecht,  
 WanZhen Liang,  C. Ochsenfeld,  V. A. Rassolov,  L. V. Slipchenko,  
 J. E. Subotnik,  T. Van Voorhis,  J. M. Herbert,  A. I. Krylov,  
 P. M. W. Gill,  M. Head-Gordon

 Contributors to earlier versions of Q-Chem not listed above: 
 R. D. Adamson,  B. Austin,  J. Baker,  G. J. O. Beran,  K. Brandhorst,  
 S. T. Brown,  E. F. C. Byrd,  A. K. Chakraborty,  C.-L. Cheng,  
 Siu Hung Chien,  D. M. Chipman,  D. L. Crittenden,  H. Dachsel,  
 R. J. Doerksen,  A. D. Dutoi,  L. Fusti-Molnar,  W. A. Goddard III,  
 A. Golubeva-Zadorozhnaya,  S. R. Gwaltney,  G. Hawkins,  A. Heyden,  
 S. Hirata,  G. Kedziora,  F. J. Keil,  C. Kelley,  Jihan Kim,  R. A. King,  
 R. Z. Khaliullin,  P. P. Korambath,  W. Kurlancheek,  A. M. Lee,  M. S. Lee,  
 S. V. Levchenko,  Ching Yeh Lin,  D. Liotard,  R. C. Lochan,  I. Lotan,  
 P. E. Maslen,  N. Nair,  D. P. O'Neill,  D. Neuhauser,  E. Neuscamman,  
 C. M. Oana,  R. Olson,  B. Peters,  R. Peverati,  P. A. Pieniazek,  
 Y. M. Rhee,  J. Ritchie,  M. A. Rohrdanz,  E. Rosta,  N. J. Russ,  
 H. F. Schaefer III,  N. E. Schultz,  N. Shenvi,  A. C. Simmonett,  A. Sodt,  
 D. Stuck,  K. S. Thanthiriwatte,  V. Vanovschi,  Tao Wang,  A. Warshel,  
 C. F. Williams,  Q. Wu,  X. Xu,  W. Zhang

 Please cite Q-Chem as follows:
 Y. Shao et al., Mol. Phys. 113, 184-215 (2015)
 DOI: 10.1080/00268976.2014.952696

 Q-Chem 5.2.1 for Intel X86 EM64T Linux

 Parts of Q-Chem use Armadillo 8.300.2 (Tropical Shenanigans).
 http://arma.sourceforge.net/

 Q-Chem begins on Tue Jan 19 02:34:09 2021  

Host: iqmol
0

     Scratch files written to /aimm/scratch/qchem16369//
 Jul1719 |scratch|qcdevops|jenkins|workspace|build_RNUM 6466   
Processing $rem in /opt/qchem/qc521/config/preferences:
	 MEM_TOTAL  2000 
NAlpha2: 26
NElect   26
Mult     1
The previous job contains 0 fragments, simply inherited here

Checking the input file for inconsistencies... 	...done.

--------------------------------------------------------------
User input:
--------------------------------------------------------------

$molecule
read
$end

$rem
BASIS  =  6-31G*
GUI  =  2
JOB_TYPE  =  Frequency
METHOD  =  wB97XD
SCF_CONVERGENCE  =  8
$end

--------------------------------------------------------------
 Atom   1: (  1.1444220174, -0.3981484336, -0.0000000933)
         ->(  1.1444220174, -0.3981484336,  0.0000000000)
 Atom   2: (  0.0893851719,  0.5464000038, -0.0000000202)
         ->(  0.0893851719,  0.5464000038,  0.0000000000)
 Atom   3: ( -1.2190926157, -0.2205310634,  0.0000000492)
         ->( -1.2190926157, -0.2205310634,  0.0000000000)
 Atom   4: (  1.9778357548,  0.0855880531,  0.0000005852)
         ->(  1.9778357548,  0.0855880531,  0.0000000000)
 Atom   6: (  0.1409770357,  1.1960125929,  0.8880339446)
         ->(  0.1409769431,  1.1960126219,  0.8880339871)
 Atom   9: ( -1.2830406472, -0.8575074988,  0.8870903033)
         ->( -1.2830398541, -0.8575087610,  0.8870893422)
 Atom   8: ( -2.0708407089,  0.4673768185, -0.0000009311)
         ->( -2.0708407089,  0.4673768185,  0.0000000000)
 ----------------------------------------------------------------
             Standard Nuclear Orientation (Angstroms)
    I     Atom           X                Y                Z
 ----------------------------------------------------------------
    1      O       1.1444220174    -0.3981484336     0.0000000000
    2      C       0.0893851719     0.5464000038     0.0000000000
    3      C      -1.2190926157    -0.2205310634     0.0000000000
    4      H       1.9778357548     0.0855880531     0.0000000000
    5      H       0.1409769431     1.1960126219    -0.8880339871
    6      H       0.1409769431     1.1960126219     0.8880339871
    7      H      -1.2830398541    -0.8575087610    -0.8870893422
    8      H      -2.0708407089     0.4673768185     0.0000000000
    9      H      -1.2830398541    -0.8575087610     0.8870893422
 ----------------------------------------------------------------
 Molecular Point Group                 Cs    NOp =  2
 Largest Abelian Subgroup              Cs    NOp =  2
 Nuclear Repulsion Energy =          81.89455404 hartrees
 There are       13 alpha and       13 beta electrons
 Requested basis set is 6-31G(d)
 There are 24 shells and 57 basis functions

 Total QAlloc Memory Limit   2000 MB
 Mega-Array Size       188 MB
 MEM_STATIC part       192 MB

                       Distance Matrix (Angstroms)
             O (  1)   C (  2)   C (  3)   H (  4)   H (  5)   H (  6)
   C (  2)  1.416077
   C (  3)  2.370179  1.516673
   H (  4)  0.963628  1.943860  3.211551
   H (  5)  2.082512  1.101482  2.155224  2.322864
   H (  6)  2.082512  1.101482  2.155224  2.322864  1.776068
   H (  7)  2.624978  2.154400  1.093964  3.508514  2.498955  3.065263
   H (  8)  3.329722  2.161671  1.094848  4.066638  2.492319  2.492319
   H (  9)  2.624978  2.154400  1.093964  3.508514  3.065263  2.498955
             H (  7)   H (  8)
   H (  8)  1.778449
   H (  9)  1.774179  1.778449
 
 A cutoff of  1.0D-11 yielded    299 shell pairs
 There are      1733 function pairs
 Smallest overlap matrix eigenvalue = 5.90E-03
 Guess from superposition of atomic densities
 Warning:  Energy on first SCF cycle will be non-variational
 SAD guess density has 26.000000 electrons

 -----------------------------------------------------------------------
  General SCF calculation program by
  Eric Jon Sundstrom, Paul Horn, Yuezhi Mao, Dmitri Zuev, Alec White,
  David Stuck, Shaama M.S., Shane Yost, Joonho Lee, David Small,
  Daniel Levine, Susi Lehtola, Hugh Burton, Evgeny Epifanovsky,
  Bang C. Huynh
 -----------------------------------------------------------------------
 Exchange:     0.2220 Hartree-Fock + 1.0000 wB97X-D + LR-HF
 Correlation:  1.0000 wB97X-D
 Using SG-2 standard quadrature grid
 Dispersion:   Grimme D
 A restricted SCF calculation will be
 performed using DIIS
 SCF converges when DIIS error is below 1.0e-08
 ---------------------------------------
  Cycle       Energy         DIIS error
 ---------------------------------------
    1    -155.4118518872      9.99e-02  
    2    -154.9251576944      1.30e-02  
    3    -154.9364796628      1.26e-02  
    4    -154.9820740073      1.08e-03  
    5    -154.9824121222      4.31e-04  
    6    -154.9824793897      5.88e-05  
    7    -154.9824809127      5.96e-06  
    8    -154.9824809450      1.74e-06  
    9    -154.9824809466      6.79e-07  
   10    -154.9824809468      1.06e-07  
   11    -154.9824809468      1.35e-08  
   12    -154.9824809468      2.66e-09  Convergence criterion met
 ---------------------------------------
 SCF time:   CPU 10.65s  wall 11.00s 
 SCF   energy in the final basis set =     -154.9824809468
 Total energy in the final basis set =     -154.9824809468
 
 --------------------------------------------------------------
             Orbital Energies (a.u.) and Symmetries
 --------------------------------------------------------------
 
 Alpha MOs, Restricted
 -- Occupied --                  
-19.259 -10.337 -10.280  -1.113  -0.842  -0.699  -0.601  -0.548
  1 A'    2 A'    3 A'    4 A'    5 A'    6 A'    7 A'    1 A"                 
 -0.481  -0.461  -0.443  -0.407  -0.345
  8 A'    9 A'    2 A"   10 A'    3 A"                                         
 -- Virtual --                   
  0.167   0.206   0.242   0.250   0.262   0.285   0.301   0.321
 11 A'   12 A'    4 A"   13 A'   14 A'    5 A"   15 A'   16 A'                 
  0.615   0.648   0.655   0.674   0.767   0.774   0.905   0.950
 17 A'    6 A"   18 A'   19 A'   20 A'    7 A"   21 A'    8 A"                 
  0.975   0.995   1.009   1.032   1.089   1.115   1.118   1.254
 22 A'   23 A'    9 A"   24 A'   25 A'   10 A"   26 A'   27 A'                 
  1.469   1.529   1.568   1.747   1.833   1.878   2.017   2.041
 28 A'   11 A"   29 A'   30 A'   12 A"   31 A'   13 A"   32 A'                 
  2.136   2.263   2.318   2.420   2.477   2.505   2.593   2.710
 33 A'   14 A"   34 A'   15 A"   35 A'   16 A"   36 A'   37 A'                 
  2.938   3.827   4.276   4.500
 38 A'   39 A'   40 A'   41 A'                                                 
 
 Beta MOs, Restricted
 -- Occupied --                  
-19.259 -10.337 -10.280  -1.113  -0.842  -0.699  -0.601  -0.548
  1 A'    2 A'    3 A'    4 A'    5 A'    6 A'    7 A'    1 A"                 
 -0.481  -0.461  -0.443  -0.407  -0.345
  8 A'    9 A'    2 A"   10 A'    3 A"                                         
 -- Virtual --                   
  0.167   0.206   0.242   0.250   0.262   0.285   0.301   0.321
 11 A'   12 A'    4 A"   13 A'   14 A'    5 A"   15 A'   16 A'                 
  0.615   0.648   0.655   0.674   0.767   0.774   0.905   0.950
 17 A'    6 A"   18 A'   19 A'   20 A'    7 A"   21 A'    8 A"                 
  0.975   0.995   1.009   1.032   1.089   1.115   1.118   1.254
 22 A'   23 A'    9 A"   24 A'   25 A'   10 A"   26 A'   27 A'                 
  1.469   1.529   1.568   1.747   1.833   1.878   2.017   2.041
 28 A'   11 A"   29 A'   30 A'   12 A"   31 A'   13 A"   32 A'                 
  2.136   2.263   2.318   2.420   2.477   2.505   2.593   2.710
 33 A'   14 A"   34 A'   15 A"   35 A'   16 A"   36 A'   37 A'                 
  2.938   3.827   4.276   4.500
 38 A'   39 A'   40 A'   41 A'                                                 
 --------------------------------------------------------------
 
          Ground-State Mulliken Net Atomic Charges

     Atom                 Charge (a.u.)
  ----------------------------------------
      1 O                    -0.633749
      2 C                    -0.060867
      3 C                    -0.501615
      4 H                     0.406915
      5 H                     0.136874
      6 H                     0.136874
      7 H                     0.177962
      8 H                     0.159644
      9 H                     0.177962
  ----------------------------------------
  Sum of atomic charges =     0.000000

 -----------------------------------------------------------------
                    Cartesian Multipole Moments
 -----------------------------------------------------------------
    Charge (ESU x 10^10)
                -0.0000
    Dipole Moment (Debye)
         X       0.2741      Y       1.5905      Z       0.0000
       Tot       1.6139
    Quadrupole Moments (Debye-Ang)
        XX     -16.4673     XY       1.9518     YY     -20.3007
        XZ      -0.0000     YZ       0.0000     ZZ     -19.8106
    Octopole Moments (Debye-Ang^2)
       XXX      15.9602    XXY       2.5975    XYY       0.7529
       YYY      -0.7986    XXZ      -0.0000    XYZ      -0.0000
       YYZ       0.0000    XZZ       1.3240    YZZ      -0.4730
       ZZZ       0.0000
    Hexadecapole Moments (Debye-Ang^3)
      XXXX    -127.8892   XXXY      -0.0623   XXYY     -34.9771
      XYYY      -0.8269   YYYY     -56.1177   XXXZ       0.0000
      XXYZ       0.0000   XYYZ       0.0000   YYYZ       0.0000
      XXZZ     -31.6921   XYZZ       0.8780   YYZZ     -13.4763
      XZZZ       0.0000   YZZZ       0.0000   ZZZZ     -31.8656
 -----------------------------------------------------------------
 Calculating MO derivatives via CPSCF
    1     0    30    0.0422944  
    2     0    30    0.0102227  
    3     0    30    0.0009877  
    4     0    30    0.0000617  
    5    20    10    0.0000050  
    6    30     0    0.0000003  Converged
 Time for AOints: 0.7 s (CPU) 0.7 s (wall)
 ------------------------------------------------------------------------------
                     AOints        : Timing summary (seconds)
 ------------------------------------------------------------------------------
     job step          cpu (% of tot)      sys (% of tot)     wall (% of tot)
 ------------------------------------------------------------------------------
  AOints            0.6540E+00 ( 2.3)   0.0000E+00 ( 0.0)   0.6535E+00 ( 2.3)
 ------------------------------------------------------------------------------
   Grand Totals     0.2894E+02          0.1400E-04          0.2891E+02
 ------------------------------------------------------------------------------
 Polarizability Matrix (a.u.)
            1           2           3
    1 -28.9508059  -0.3236207  -0.0000000
    2  -0.3236207 -25.6200812   0.0000000
    3  -0.0000000   0.0000000 -23.9278235
 Calculating analytic Hessian of the SCF energy
atom: 0 element: 8
atom: 1 element: 6
atom: 2 element: 6
atom: 3 element: 1
atom: 4 element: 1
atom: 5 element: 1
atom: 6 element: 1
atom: 7 element: 1
atom: 8 element: 1
 
 Direct stationary perturbation theory relativistic correction:
 
 rels  =       0.047764678883
 relv  =      -0.196656347536
 rel2e =       0.000000000000
 E_rel =      -0.148891668654
 
 Hessian of the SCF Energy
            1           2           3           4           5           6
    1   0.6284965   0.0881909  -0.0000000  -0.1777073   0.1018900   0.0000000
    2   0.0881909   0.3805463   0.0000000   0.0543360  -0.1763464  -0.0000000
    3  -0.0000000   0.0000000   0.0486620  -0.0000000  -0.0000000  -0.0680768
    4  -0.1777073   0.0543360  -0.0000000   0.5085447   0.0228300   0.0000000
    5   0.1018900  -0.1763464  -0.0000000   0.0228300   0.5626050  -0.0000000
    6   0.0000000  -0.0000000  -0.0680768   0.0000000  -0.0000000   0.6032382
    7  -0.0410596  -0.0101267  -0.0000000  -0.1717091  -0.0603915   0.0000000
    8   0.0301165   0.0149265   0.0000000  -0.0758406  -0.1283317   0.0000000
    9  -0.0000000   0.0000000   0.0042738   0.0000000   0.0000000  -0.0864892
   10  -0.3926166  -0.1852799  -0.0000000  -0.0283672  -0.0224950  -0.0000000
   11  -0.2437069  -0.1772492   0.0000000   0.0350925   0.0102576  -0.0000000
   12   0.0000000  -0.0000000  -0.0033143  -0.0000000  -0.0000000  -0.0013455
   13  -0.0077307   0.0278998  -0.0229018  -0.0549496  -0.0132101   0.0170995
   14   0.0129844  -0.0219648   0.0191368  -0.0115778  -0.1279260   0.1070754
   15  -0.0057528   0.0012767   0.0088365   0.0173186   0.1098383  -0.2233163
   16  -0.0077307   0.0278998   0.0229018  -0.0549496  -0.0132101  -0.0170995
   17   0.0129844  -0.0219648  -0.0191368  -0.0115778  -0.1279260  -0.1070754
   18   0.0057528  -0.0012767   0.0088365  -0.0173186  -0.1098383  -0.2233163
   19   0.0026333   0.0009808   0.0007926  -0.0023200  -0.0195668  -0.0270414
   20   0.0008908   0.0017812   0.0012768  -0.0001799  -0.0126371  -0.0163186
   21  -0.0007053   0.0004735   0.0000607   0.0006788   0.0008609   0.0009246
   22  -0.0069183  -0.0048814   0.0000000  -0.0162221   0.0237203  -0.0000000
   23  -0.0042408  -0.0015099   0.0000000  -0.0129023   0.0129417  -0.0000000
   24   0.0000000  -0.0000000   0.0006609  -0.0000000  -0.0000000  -0.0025434
   25   0.0026333   0.0009808  -0.0007926  -0.0023200  -0.0195668   0.0270414
   26   0.0008908   0.0017812  -0.0012768  -0.0001799  -0.0126371   0.0163186
   27   0.0007053  -0.0004735   0.0000607  -0.0006788  -0.0008609   0.0009246
            7           8           9          10          11          12
    1  -0.0410596   0.0301165  -0.0000000  -0.3926166  -0.2437069   0.0000000
    2  -0.0101267   0.0149265   0.0000000  -0.1852799  -0.1772492  -0.0000000
    3  -0.0000000   0.0000000   0.0042738  -0.0000000   0.0000000  -0.0033143
    4  -0.1717091  -0.0758406   0.0000000  -0.0283672   0.0350925  -0.0000000
    5  -0.0603915  -0.1283317   0.0000000  -0.0224950   0.0102576  -0.0000000
    6   0.0000000   0.0000000  -0.0864892  -0.0000000  -0.0000000  -0.0013455
    7   0.5334341  -0.0444871  -0.0000000  -0.0049309   0.0029533   0.0000000
    8  -0.0444871   0.5740239  -0.0000000   0.0069946  -0.0032553   0.0000000
    9  -0.0000000  -0.0000000   0.5939155   0.0000000  -0.0000000  -0.0001883
   10  -0.0049309   0.0069946   0.0000000   0.4229264   0.2032281  -0.0000000
   11   0.0029533  -0.0032553  -0.0000000   0.2032281   0.1693984   0.0000000
   12   0.0000000   0.0000000  -0.0001883  -0.0000000   0.0000000   0.0036122
   13  -0.0016497  -0.0178695   0.0260825   0.0016579   0.0006340  -0.0008134
   14  -0.0027662  -0.0088354   0.0147087  -0.0009100   0.0000680  -0.0007384
   15  -0.0004622  -0.0014586   0.0010924  -0.0007875   0.0006060   0.0001064
   16  -0.0016497  -0.0178695  -0.0260825   0.0016579   0.0006340   0.0008134
   17  -0.0027662  -0.0088354  -0.0147087  -0.0009100   0.0000680   0.0007384
   18   0.0004622   0.0014586   0.0010924   0.0007875  -0.0006060   0.0001064
   19  -0.0503942  -0.0055031  -0.0104755   0.0005633  -0.0000030   0.0001964
   20  -0.0074153  -0.1407978  -0.1264625   0.0003014  -0.0000925   0.0000770
   21  -0.0117893  -0.1276391  -0.2322738   0.0000222   0.0002793   0.0000957
   22  -0.2116468   0.1299619  -0.0000000  -0.0014541   0.0011709   0.0000000
   23   0.1324151  -0.1580969   0.0000000  -0.0012305   0.0008975  -0.0000000
   24  -0.0000000   0.0000000  -0.0491490  -0.0000000   0.0000000   0.0008316
   25  -0.0503942  -0.0055031   0.0104755   0.0005633  -0.0000030  -0.0001964
   26  -0.0074153  -0.1407978   0.1264625   0.0003014  -0.0000925  -0.0000770
   27   0.0117893   0.1276391  -0.2322738  -0.0000222  -0.0002793   0.0000957
           13          14          15          16          17          18
    1  -0.0077307   0.0129844  -0.0057528  -0.0077307   0.0129844   0.0057528
    2   0.0278998  -0.0219648   0.0012767   0.0278998  -0.0219648  -0.0012767
    3  -0.0229018   0.0191368   0.0088365   0.0229018  -0.0191368   0.0088365
    4  -0.0549496  -0.0115778   0.0173186  -0.0549496  -0.0115778  -0.0173186
    5  -0.0132101  -0.1279260   0.1098383  -0.0132101  -0.1279260  -0.1098383
    6   0.0170995   0.1070754  -0.2233163  -0.0170995  -0.1070754  -0.2233163
    7  -0.0016497  -0.0027662  -0.0004622  -0.0016497  -0.0027662   0.0004622
    8  -0.0178695  -0.0088354  -0.0014586  -0.0178695  -0.0088354   0.0014586
    9   0.0260825   0.0147087   0.0010924  -0.0260825  -0.0147087   0.0010924
   10   0.0016579  -0.0009100  -0.0007875   0.0016579  -0.0009100   0.0007875
   11   0.0006340   0.0000680   0.0006060   0.0006340   0.0000680  -0.0006060
   12  -0.0008134  -0.0007384   0.0001064   0.0008134   0.0007384   0.0001064
   13   0.0633805   0.0043359  -0.0148035   0.0028769   0.0003900  -0.0035061
   14   0.0043359   0.1468350  -0.1251410   0.0003900   0.0122092  -0.0150552
   15  -0.0148035  -0.1251410   0.2340439   0.0035061   0.0150552  -0.0232291
   16   0.0028769   0.0003900   0.0035061   0.0633805   0.0043359   0.0148035
   17   0.0003900   0.0122092   0.0150552   0.0043359   0.1468350   0.1251410
   18  -0.0035061  -0.0150552  -0.0232291   0.0148035   0.1251410   0.2340439
   19   0.0011959   0.0009216   0.0002840  -0.0054994  -0.0030515   0.0000934
   20   0.0007267   0.0000635   0.0001244  -0.0037620  -0.0009135   0.0005353
   21  -0.0006225   0.0001446   0.0010135   0.0004795   0.0000492   0.0015774
   22   0.0007181  -0.0003264   0.0007908   0.0007181  -0.0003264  -0.0007908
   23   0.0008552   0.0004641   0.0002343   0.0008552   0.0004641  -0.0002343
   24  -0.0000552  -0.0000816  -0.0001247   0.0000552   0.0000816  -0.0001247
   25  -0.0054994  -0.0030515  -0.0000934   0.0011959   0.0009216  -0.0002840
   26  -0.0037620  -0.0009135  -0.0005353   0.0007267   0.0000635  -0.0001244
   27  -0.0004795  -0.0000492   0.0015774   0.0006225  -0.0001446   0.0010135
           19          20          21          22          23          24
    1   0.0026333   0.0008908  -0.0007053  -0.0069183  -0.0042408   0.0000000
    2   0.0009808   0.0017812   0.0004735  -0.0048814  -0.0015099  -0.0000000
    3   0.0007926   0.0012768   0.0000607   0.0000000   0.0000000   0.0006609
    4  -0.0023200  -0.0001799   0.0006788  -0.0162221  -0.0129023  -0.0000000
    5  -0.0195668  -0.0126371   0.0008609   0.0237203   0.0129417  -0.0000000
    6  -0.0270414  -0.0163186   0.0009246  -0.0000000  -0.0000000  -0.0025434
    7  -0.0503942  -0.0074153  -0.0117893  -0.2116468   0.1324151  -0.0000000
    8  -0.0055031  -0.1407978  -0.1276391   0.1299619  -0.1580969   0.0000000
    9  -0.0104755  -0.1264625  -0.2322738  -0.0000000   0.0000000  -0.0491490
   10   0.0005633   0.0003014   0.0000222  -0.0014541  -0.0012305  -0.0000000
   11  -0.0000030  -0.0000925   0.0002793   0.0011709   0.0008975   0.0000000
   12   0.0001964   0.0000770   0.0000957   0.0000000  -0.0000000   0.0008316
   13   0.0011959   0.0007267  -0.0006225   0.0007181   0.0008552  -0.0000552
   14   0.0009216   0.0000635   0.0001446  -0.0003264   0.0004641  -0.0000816
   15   0.0002840   0.0001244   0.0010135   0.0007908   0.0002343  -0.0001247
   16  -0.0054994  -0.0037620   0.0004795   0.0007181   0.0008552   0.0000552
   17  -0.0030515  -0.0009135   0.0000492  -0.0003264   0.0004641   0.0000816
   18   0.0000934   0.0005353   0.0015774  -0.0007908  -0.0002343  -0.0001247
   19   0.0519834   0.0110604   0.0124652   0.0026421   0.0140902   0.0227006
   20   0.0110604   0.1508717   0.1403020  -0.0026934  -0.0113249  -0.0161462
   21   0.0124652   0.1403020   0.2470946   0.0004559   0.0021415   0.0014973
   22   0.0026421  -0.0026934   0.0004559   0.2295210  -0.1439322   0.0000000
   23   0.0140902  -0.0113249   0.0021415  -0.1439322   0.1674893  -0.0000000
   24   0.0227006  -0.0161462   0.0014973   0.0000000  -0.0000000   0.0474548
   25  -0.0008044   0.0010714  -0.0009847   0.0026421   0.0140902  -0.0227006
   26   0.0010714   0.0130493  -0.0166118  -0.0026934  -0.0113249   0.0161462
   27   0.0009847   0.0166118  -0.0199899  -0.0004559  -0.0021415   0.0014973
           25          26          27
    1   0.0026333   0.0008908   0.0007053
    2   0.0009808   0.0017812  -0.0004735
    3  -0.0007926  -0.0012768   0.0000607
    4  -0.0023200  -0.0001799  -0.0006788
    5  -0.0195668  -0.0126371  -0.0008609
    6   0.0270414   0.0163186   0.0009246
    7  -0.0503942  -0.0074153   0.0117893
    8  -0.0055031  -0.1407978   0.1276391
    9   0.0104755   0.1264625  -0.2322738
   10   0.0005633   0.0003014  -0.0000222
   11  -0.0000030  -0.0000925  -0.0002793
   12  -0.0001964  -0.0000770   0.0000957
   13  -0.0054994  -0.0037620  -0.0004795
   14  -0.0030515  -0.0009135  -0.0000492
   15  -0.0000934  -0.0005353   0.0015774
   16   0.0011959   0.0007267   0.0006225
   17   0.0009216   0.0000635  -0.0001446
   18  -0.0002840  -0.0001244   0.0010135
   19  -0.0008044   0.0010714   0.0009847
   20   0.0010714   0.0130493   0.0166118
   21  -0.0009847  -0.0166118  -0.0199899
   22   0.0026421  -0.0026934  -0.0004559
   23   0.0140902  -0.0113249  -0.0021415
   24  -0.0227006   0.0161462   0.0014973
   25   0.0519834   0.0110604  -0.0124652
   26   0.0110604   0.1508717  -0.1403020
   27  -0.0124652  -0.1403020   0.2470946
 **********************************************************************
 **                                                                  **
 **                       VIBRATIONAL ANALYSIS                       **
 **                       --------------------                       **
 **                                                                  **
 **        VIBRATIONAL FREQUENCIES (CM**-1) AND NORMAL MODES         **
 **     FORCE CONSTANTS (mDYN/ANGSTROM) AND REDUCED MASSES (AMU)     **
 **                  INFRARED INTENSITIES (KM/MOL)                   **
 **                                                                  **
 **********************************************************************
 

 Mode:                 1                      2                      3
 Frequency:       276.32                 324.30                 424.09
 Force Cnst:      0.0517                 0.0664                 0.2800
 Red. Mass:       1.1501                 1.0714                 2.6421
 IR Active:          YES                    YES                    YES
 IR Intens:       26.210                113.841                 11.916
 Raman Active:       YES                    YES                    YES
               X      Y      Z        X      Y      Z        X      Y      Z
 O         -0.000 -0.000  0.084   -0.000 -0.000 -0.037    0.222  0.061  0.000
 C          0.000  0.000 -0.056    0.000  0.000 -0.057   -0.018 -0.187 -0.000
 C          0.000 -0.000 -0.014    0.000 -0.000  0.027   -0.195  0.053  0.000
 H         -0.000 -0.000 -0.338   -0.000 -0.000  0.925    0.053  0.352  0.000
 H          0.022 -0.083 -0.114   -0.011 -0.024 -0.077   -0.076 -0.166  0.011
 H         -0.022  0.083 -0.114    0.011  0.024 -0.077   -0.076 -0.166 -0.011
 H         -0.283  0.355 -0.247   -0.149  0.102 -0.036   -0.490  0.095 -0.009
 H         -0.000 -0.000  0.549   -0.000 -0.000  0.243    0.090  0.413  0.000
 H          0.283 -0.355 -0.247    0.149 -0.102 -0.036   -0.490  0.095  0.009
 TransDip   0.000 -0.000 -0.164    0.000 -0.000  0.342   -0.102  0.044  0.000

 Mode:                 4                      5                      6
 Frequency:       830.66                 928.77                1063.53
 Force Cnst:      0.4392                 1.0665                 1.3190
 Red. Mass:       1.0803                 2.0985                 1.9793
 IR Active:          YES                    YES                    YES
 IR Intens:        0.014                  6.739                 48.098
 Raman Active:       YES                    YES                    YES
               X      Y      Z        X      Y      Z        X      Y      Z
 O          0.000 -0.000  0.021   -0.128  0.079  0.000   -0.055  0.073  0.000
 C         -0.000 -0.000 -0.061   -0.025 -0.147 -0.000    0.176  0.100 -0.000
 C          0.000  0.000 -0.048    0.214 -0.007  0.000   -0.079 -0.173 -0.000
 H         -0.000  0.000 -0.039   -0.137  0.084 -0.000    0.280 -0.518 -0.000
 H          0.269  0.350  0.218   -0.206 -0.116  0.000    0.085  0.123  0.001
 H         -0.269 -0.350  0.218   -0.206 -0.116 -0.000    0.085  0.123 -0.001
 H         -0.350 -0.282  0.186   -0.157  0.101 -0.045   -0.463 -0.097 -0.028
 H          0.000  0.000  0.184    0.644  0.531  0.000    0.197  0.190  0.000
 H          0.350  0.282  0.186   -0.157  0.101  0.045   -0.463 -0.097  0.028
 TransDip  -0.000  0.000  0.004    0.068 -0.048  0.000    0.183 -0.125 -0.000

 Mode:                 7                      8                      9
 Frequency:      1154.79                1207.16                1312.05
 Force Cnst:      1.9833                 1.3329                 1.2673
 Red. Mass:       2.5243                 1.5525                 1.2495
 IR Active:          YES                    YES                    YES
 IR Intens:       31.276                  5.545                 95.719
 Raman Active:       YES                    YES                    YES
               X      Y      Z        X      Y      Z        X      Y      Z
 O         -0.136  0.136  0.000    0.000 -0.000 -0.052   -0.006 -0.071  0.000
 C          0.207 -0.190  0.000   -0.000  0.000  0.179   -0.011  0.091 -0.000
 C         -0.079  0.045 -0.000   -0.000 -0.000 -0.117    0.020 -0.079 -0.000
 H         -0.259  0.325 -0.000    0.000 -0.000  0.008   -0.420  0.673  0.000
 H          0.442 -0.156  0.020    0.164 -0.496 -0.167    0.326  0.098  0.020
 H          0.442 -0.156 -0.020   -0.164  0.496 -0.167    0.326  0.098 -0.020
 H          0.168 -0.083  0.064   -0.270 -0.258  0.099   -0.201  0.017 -0.050
 H         -0.325 -0.280  0.000    0.000  0.000  0.225    0.151  0.094  0.000
 H          0.168 -0.083 -0.064    0.270  0.258  0.099   -0.201  0.017  0.050
 TransDip   0.140 -0.111  0.000    0.000  0.000  0.075   -0.219  0.224 -0.000

 Mode:                10                     11                     12
 Frequency:      1328.42                1428.92                1498.72
 Force Cnst:      1.1367                 1.4854                 1.9700
 Red. Mass:       1.0932                 1.2347                 1.4886
 IR Active:          YES                    YES                    YES
 IR Intens:        0.005                  2.290                 14.137
 Raman Active:       YES                    YES                    YES
               X      Y      Z        X      Y      Z        X      Y      Z
 O         -0.000 -0.000 -0.032    0.006  0.018 -0.000   -0.016 -0.050  0.000
 C          0.000  0.000 -0.014   -0.046 -0.006 -0.000    0.174  0.049  0.000
 C          0.000 -0.000  0.079   -0.111 -0.076  0.000   -0.083 -0.018 -0.000
 H         -0.000  0.000 -0.013    0.077 -0.111 -0.000   -0.239  0.356  0.000
 H          0.657 -0.089 -0.025    0.227  0.016  0.030   -0.553 -0.027 -0.107
 H         -0.657  0.089 -0.025    0.227  0.016 -0.030   -0.553 -0.027  0.107
 H          0.157  0.158 -0.048    0.458  0.156 -0.193    0.215 -0.030 -0.015
 H         -0.000 -0.000 -0.098    0.328  0.453 -0.000    0.084  0.188  0.000
 H         -0.157 -0.158 -0.048    0.458  0.156  0.193    0.215 -0.030  0.015
 TransDip  -0.000  0.000 -0.002    0.047  0.010 -0.000    0.105  0.059 -0.000

 Mode:                13                     14                     15
 Frequency:      1522.99                1538.82                1570.98
 Force Cnst:      1.4214                 1.4544                 1.5905
 Red. Mass:       1.0401                 1.0424                 1.0938
 IR Active:          YES                    YES                    YES
 IR Intens:        5.465                  4.047                  3.620
 Raman Active:       YES                    YES                    YES
               X      Y      Z        X      Y      Z        X      Y      Z
 O          0.000  0.000  0.001   -0.004  0.007 -0.000   -0.000 -0.011  0.000
 C         -0.000  0.000 -0.021    0.021  0.009  0.000    0.026 -0.083 -0.000
 C         -0.000 -0.000 -0.050    0.021 -0.046  0.000    0.002 -0.010  0.000
 H          0.000 -0.000  0.008    0.003 -0.007 -0.000   -0.020  0.025 -0.000
 H          0.023  0.035  0.003   -0.049 -0.184 -0.132   -0.110  0.526  0.401
 H         -0.023 -0.035  0.003   -0.049 -0.184  0.132   -0.110  0.526 -0.401
 H          0.464 -0.165  0.052   -0.081  0.494 -0.369   -0.005  0.157 -0.117
 H         -0.000  0.000  0.710   -0.190 -0.282 -0.000   -0.075 -0.105  0.000
 H         -0.464  0.165  0.052   -0.081  0.494  0.369   -0.005  0.157  0.117
 TransDip  -0.000  0.000  0.075   -0.039  0.051 -0.000    0.059 -0.014 -0.000

 Mode:                16                     17                     18
 Frequency:      3005.47                3037.55                3074.49
 Force Cnst:      5.6176                 6.0251                 5.7679
 Red. Mass:       1.0555                 1.1083                 1.0357
 IR Active:          YES                    YES                    YES
 IR Intens:       73.252                 76.072                 15.425
 Raman Active:       YES                    YES                    YES
               X      Y      Z        X      Y      Z        X      Y      Z
 O          0.002 -0.001  0.000   -0.000  0.000  0.000   -0.000  0.000  0.000
 C         -0.010 -0.065 -0.000    0.000  0.000 -0.095    0.002  0.003 -0.000
 C         -0.003  0.004  0.000    0.000  0.000  0.009   -0.046 -0.021  0.000
 H          0.004 -0.008  0.000   -0.000  0.000  0.003   -0.002  0.001  0.000
 H          0.035  0.393 -0.584   -0.046 -0.412  0.565   -0.004 -0.013  0.017
 H          0.035  0.393  0.584    0.046  0.412  0.565   -0.004 -0.013 -0.017
 H         -0.001  0.000 -0.003   -0.001 -0.041 -0.057    0.023  0.317  0.449
 H          0.038 -0.040 -0.000   -0.000  0.000  0.003    0.483 -0.398  0.000
 H         -0.001  0.000  0.003    0.001  0.041 -0.057    0.023  0.317 -0.449
 TransDip  -0.004 -0.274 -0.000    0.000  0.000 -0.279   -0.119 -0.040 -0.000

 Mode:                19                     20                     21
 Frequency:      3155.27                3163.66                3860.90
 Force Cnst:      6.4674                 6.5095                 9.3659
 Red. Mass:       1.1026                 1.1039                 1.0664
 IR Active:          YES                    YES                    YES
 IR Intens:       28.959                 30.542                 18.706
 Raman Active:       YES                    YES                    YES
               X      Y      Z        X      Y      Z        X      Y      Z
 O          0.000 -0.000  0.000   -0.000  0.000  0.000   -0.055 -0.029 -0.000
 C         -0.000  0.005 -0.000    0.000 -0.000 -0.010    0.000 -0.002 -0.000
 C         -0.045  0.081 -0.000    0.000 -0.000 -0.093   -0.000  0.000 -0.000
 H          0.000 -0.001  0.000   -0.000  0.000  0.001    0.870  0.489 -0.000
 H         -0.003 -0.020  0.027   -0.007 -0.039  0.056    0.003 -0.001 -0.001
 H         -0.003 -0.020 -0.027    0.007  0.039  0.056    0.003 -0.001  0.001
 H         -0.032 -0.247 -0.368    0.038  0.414  0.564    0.001  0.000  0.001
 H          0.602 -0.482 -0.000   -0.000  0.000 -0.016    0.000 -0.001 -0.000
 H         -0.032 -0.247  0.368   -0.038 -0.414  0.564    0.001  0.000 -0.001
 TransDip  -0.074  0.156 -0.000    0.000 -0.000 -0.177    0.134  0.035 -0.000

 STANDARD THERMODYNAMIC QUANTITIES AT   298.15 K  AND     1.00 ATM

   This Molecule has  0 Imaginary Frequencies
   Zero point vibrational energy:       51.047 kcal/mol

   Atom    1 Element O  Has Mass   15.99491
   Atom    2 Element C  Has Mass   12.00000
   Atom    3 Element C  Has Mass   12.00000
   Atom    4 Element H  Has Mass    1.00783
   Atom    5 Element H  Has Mass    1.00783
   Atom    6 Element H  Has Mass    1.00783
   Atom    7 Element H  Has Mass    1.00783
   Atom    8 Element H  Has Mass    1.00783
   Atom    9 Element H  Has Mass    1.00783
   Molecular Mass:    46.041890 amu
   Principal axes and moments of inertia in amu*Bohr^2:
                             1           2           3
    Eigenvalues --       51.30865   191.50632   220.13344
          X               0.99910     0.04234     0.00000
          Y              -0.04234     0.99910     0.00000
          Z               0.00000     0.00000     1.00000
   Rotational Symmetry Number is   1
   The Molecule is an Asymmetric Top
   Translational Enthalpy:        0.889 kcal/mol
   Rotational Enthalpy:           0.889 kcal/mol
   Vibrational Enthalpy:         51.898 kcal/mol
   gas constant (RT):             0.592 kcal/mol
   Translational Entropy:        37.406  cal/mol.K
   Rotational Entropy:           22.296  cal/mol.K
   Vibrational Entropy:           4.301  cal/mol.K

   Total Enthalpy:               54.268 kcal/mol
   Total Entropy:                64.003  cal/mol.K
Archival summary:
1\1\iqmol\FREQ\ProcedureUnspecified\6-31G*\126\epif\TueJan1902:35:152021TueJan1902:35:152021\0\\#,FREQ,ProcedureUnspecified,6-31G*,\\0,1\C\H,1,1.10148\H,1,1.10148,2,107.456\O,1,1.41608,2,111.007,3,121.554,0\H,4,0.963628,1,108.031,2,-59.7252,0\C,1,1.51667,2,109.794,3,-119.369,0\H,6,1.09396,1,110.173,2,-61.28,0\H,6,1.09396,1,110.173,2,179.207,0\H,6,1.09485,1,110.699,2,58.9637,0\\\@

 Total job time:  66.22s(wall), 70.71s(cpu) 
 Tue Jan 19 02:35:15 2021

        *************************************************************
        *                                                           *
        *  Thank you very much for using Q-Chem.  Have a nice day.  *
        *                                                           *
        *************************************************************


